# vtk DataFile Version 3.0
vtk output
ASCII
DATASET UNSTRUCTURED_GRID
POINTS 16310 float
0 0 0
-1 0 0
-1 1 0
0 1 0
0 0 1
-1 0 1
-1 1 1
0 1 1
-1 2 0
0 2 0
-1 2 1
0 2 1
-1 3 0
0 3 0
-1 3 1
0 3 1
-1 4 0
0 4 0
-1 4 1
0 4 1
-1 5 0
0 5 0
-1 5 1
0 5 1
-1 6 0
0 6 0
-1 6 1
0 6 1
-1 7 0
0 7 0
-1 7 1
0 7 1
-1 8 0
0 8 0
-1 8 1
0 8 1
-1 9 0
0 9 0
-1 9 1
0 9 1
-1 10 0
0 10 0
-1 10 1
0 10 1
-1 11 0
0 11 0
-1 11 1
0 11 1
-1 12 0
0 12 0
-1 12 1
0 12 1
-1 13 0
0 13 0
-1 13 1
0 13 1
-1 14 0
0 14 0
-1 14 1
0 14 1
-2 0 0
-2 1 0
-2 0 1
-2 1 1
-2 2 0
-2 2 1
-2 3 0
-2 3 1
-2 4 0
-2 4 1
-2 5 0
-2 5 1
-2 6 0
-2 6 1
-2 7 0
-2 7 1
-2 8 0
-2 8 1
-2 9 0
-2 9 1
-2 10 0
-2 10 1
-2 11 0
-2 11 1
-2 12 0
-2 12 1
-2 13 0
-2 13 1
-2 14 0
-2 14 1
-3 0 0
-3 1 0
-3 0 1
-3 1 1
-3 2 0
-3 2 1
-3 3 0
-3 3 1
-3 4 0
-3 4 1
-3 5 0
-3 5 1
-3 6 0
-3 6 1
-3 7 0
-3 7 1
-3 8 0
-3 8 1
-3 9 0
-3 9 1
-3 10 0
-3 10 1
-3 11 0
-3 11 1
-3 12 0
-3 12 1
-3 13 0
-3 13 1
-3 14 0
-3 14 1
-4 0 0
-4 1 0
-4 0 1
-4 1 1
-4 2 0
-4 2 1
-4 3 0
-4 3 1
-4 4 0
-4 4 1
-4 5 0
-4 5 1
-4 6 0
-4 6 1
-4 7 0
-4 7 1
-4 8 0
-4 8 1
-4 9 0
-4 9 1
-4 10 0
-4 10 1
-4 11 0
-4 11 1
-4 12 0
-4 12 1
-4 13 0
-4 13 1
-4 14 0
-4 14 1
-5 0 0
-5 1 0
-5 0 1
-5 1 1
-5 2 0
-5 2 1
-5 3 0
-5 3 1
-5 4 0
-5 4 1
-5 5 0
-5 5 1
-5 6 0
-5 6 1
-5 7 0
-5 7 1
-5 8 0
-5 8 1
-5 9 0
-5 9 1
-5 10 0
-5 10 1
-5 11 0
-5 11 1
-5 12 0
-5 12 1
-5 13 0
-5 13 1
-5 14 0
-5 14 1
-6 0 0
-6 1 0
-6 0 1
-6 1 1
-6 2 0
-6 2 1
-6 3 0
-6 3 1
-6 4 0
-6 4 1
-6 5 0
-6 5 1
-6 6 0
-6 6 1
-6 7 0
-6 7 1
-6 8 0
-6 8 1
-6 9 0
-6 9 1
-6 10 0
-6 10 1
-6 11 0
-6 11 1
-6 12 0
-6 12 1
-6 13 0
-6 13 1
-6 14 0
-6 14 1
-7 0 0
-7 1 0
-7 0 1
-7 1 1
-7 2 0
-7 2 1
-7 3 0
-7 3 1
-7 4 0
-7 4 1
-7 5 0
-7 5 1
-7 6 0
-7 6 1
-7 7 0
-7 7 1
-7 8 0
-7 8 1
-7 9 0
-7 9 1
-7 10 0
-7 10 1
-7 11 0
-7 11 1
-7 12 0
-7 12 1
-7 13 0
-7 13 1
-7 14 0
-7 14 1
-8 0 0
-8 1 0
-8 0 1
-8 1 1
-8 2 0
-8 2 1
-8 3 0
-8 3 1
-8 4 0
-8 4 1
-8 5 0
-8 5 1
-8 6 0
-8 6 1
-8 7 0
-8 7 1
-8 8 0
-8 8 1
-8 9 0
-8 9 1
-8 10 0
-8 10 1
-8 11 0
-8 11 1
-8 12 0
-8 12 1
-8 13 0
-8 13 1
-8 14 0
-8 14 1
-9 0 0
-9 1 0
-9 0 1
-9 1 1
-9 2 0
-9 2 1
-9 3 0
-9 3 1
-9 4 0
-9 4 1
-9 5 0
-9 5 1
-9 6 0
-9 6 1
-9 7 0
-9 7 1
-9 8 0
-9 8 1
-9 9 0
-9 9 1
-9 10 0
-9 10 1
-9 11 0
-9 11 1
-9 12 0
-9 12 1
-9 13 0
-9 13 1
-9 14 0
-9 14 1
-10 0 0
-10 1 0
-10 0 1
-10 1 1
-10 2 0
-10 2 1
-10 3 0
-10 3 1
-10 4 0
-10 4 1
-10 5 0
-10 5 1
-10 6 0
-10 6 1
-10 7 0
-10 7 1
-10 8 0
-10 8 1
-10 9 0
-10 9 1
-10 10 0
-10 10 1
-10 11 0
-10 11 1
-10 12 0
-10 12 1
-10 13 0
-10 13 1
-10 14 0
-10 14 1
-11 0 0
-11 1 0
-11 0 1
-11 1 1
-11 2 0
-11 2 1
-11 3 0
-11 3 1
-11 4 0
-11 4 1
-11 5 0
-11 5 1
-11 6 0
-11 6 1
-11 7 0
-11 7 1
-11 8 0
-11 8 1
-11 9 0
-11 9 1
-11 10 0
-11 10 1
-11 11 0
-11 11 1
-11 12 0
-11 12 1
-11 13 0
-11 13 1
-11 14 0
-11 14 1
-12 0 0
-12 1 0
-12 0 1
-12 1 1
-12 2 0
-12 2 1
-12 3 0
-12 3 1
-12 4 0
-12 4 1
-12 5 0
-12 5 1
-12 6 0
-12 6 1
-12 7 0
-12 7 1
-12 8 0
-12 8 1
-12 9 0
-12 9 1
-12 10 0
-12 10 1
-12 11 0
-12 11 1
-12 12 0
-12 12 1
-12 13 0
-12 13 1
-12 14 0
-12 14 1
-13 0 0
-13 1 0
-13 0 1
-13 1 1
-13 2 0
-13 2 1
-13 3 0
-13 3 1
-13 4 0
-13 4 1
-13 5 0
-13 5 1
-13 6 0
-13 6 1
-13 7 0
-13 7 1
-13 8 0
-13 8 1
-13 9 0
-13 9 1
-13 10 0
-13 10 1
-13 11 0
-13 11 1
-13 12 0
-13 12 1
-13 13 0
-13 13 1
-13 14 0
-13 14 1
0 0 2
-1 0 2
-1 1 2
0 1 2
-1 2 2
0 2 2
-1 3 2
0 3 2
-1 4 2
0 4 2
-1 5 2
0 5 2
-1 6 2
0 6 2
-1 7 2
0 7 2
-1 8 2
0 8 2
-1 9 2
0 9 2
-1 10 2
0 10 2
-1 11 2
0 11 2
-1 12 2
0 12 2
-1 13 2
0 13 2
-1 14 2
0 14 2
-2 0 2
-2 1 2
-2 2 2
-2 3 2
-2 4 2
-2 5 2
-2 6 2
-2 7 2
-2 8 2
-2 9 2
-2 10 2
-2 11 2
-2 12 2
-2 13 2
-2 14 2
-3 0 2
-3 1 2
-3 2 2
-3 3 2
-3 4 2
-3 5 2
-3 6 2
-3 7 2
-3 8 2
-3 9 2
-3 10 2
-3 11 2
-3 12 2
-3 13 2
-3 14 2
-4 0 2
-4 1 2
-4 2 2
-4 3 2
-4 4 2
-4 5 2
-4 6 2
-4 7 2
-4 8 2
-4 9 2
-4 10 2
-4 11 2
-4 12 2
-4 13 2
-4 14 2
-5 0 2
-5 1 2
-5 2 2
-5 3 2
-5 4 2
-5 5 2
-5 6 2
-5 7 2
-5 8 2
-5 9 2
-5 10 2
-5 11 2
-5 12 2
-5 13 2
-5 14 2
-6 0 2
-6 1 2
-6 2 2
-6 3 2
-6 4 2
-6 5 2
-6 6 2
-6 7 2
-6 8 2
-6 9 2
-6 10 2
-6 11 2
-6 12 2
-6 13 2
-6 14 2
-7 0 2
-7 1 2
-7 2 2
-7 3 2
-7 4 2
-7 5 2
-7 6 2
-7 7 2
-7 8 2
-7 9 2
-7 10 2
-7 11 2
-7 12 2
-7 13 2
-7 14 2
-8 0 2
-8 1 2
-8 2 2
-8 3 2
-8 4 2
-8 5 2
-8 6 2
-8 7 2
-8 8 2
-8 9 2
-8 10 2
-8 11 2
-8 12 2
-8 13 2
-8 14 2
-9 0 2
-9 1 2
-9 2 2
-9 3 2
-9 4 2
-9 5 2
-9 6 2
-9 7 2
-9 8 2
-9 9 2
-9 10 2
-9 11 2
-9 12 2
-9 13 2
-9 14 2
-10 0 2
-10 1 2
-10 2 2
-10 3 2
-10 4 2
-10 5 2
-10 6 2
-10 7 2
-10 8 2
-10 9 2
-10 10 2
-10 11 2
-10 12 2
-10 13 2
-10 14 2
-11 0 2
-11 1 2
-11 2 2
-11 3 2
-11 4 2
-11 5 2
-11 6 2
-11 7 2
-11 8 2
-11 9 2
-11 10 2
-11 11 2
-11 12 2
-11 13 2
-11 14 2
-12 0 2
-12 1 2
-12 2 2
-12 3 2
-12 4 2
-12 5 2
-12 6 2
-12 7 2
-12 8 2
-12 9 2
-12 10 2
-12 11 2
-12 12 2
-12 13 2
-12 14 2
-13 0 2
-13 1 2
-13 2 2
-13 3 2
-13 4 2
-13 5 2
-13 6 2
-13 7 2
-13 8 2
-13 9 2
-13 10 2
-13 11 2
-13 12 2
-13 13 2
-13 14 2
0 0 3
-1 0 3
-1 1 3
0 1 3
-1 2 3
0 2 3
-1 3 3
0 3 3
-1 4 3
0 4 3
-1 5 3
0 5 3
-1 6 3
0 6 3
-1 7 3
0 7 3
-1 8 3
0 8 3
-1 9 3
0 9 3
-1 10 3
0 10 3
-1 11 3
0 11 3
-1 12 3
0 12 3
-1 13 3
0 13 3
-1 14 3
0 14 3
-2 0 3
-2 1 3
-2 2 3
-2 3 3
-2 4 3
-2 5 3
-2 6 3
-2 7 3
-2 8 3
-2 9 3
-2 10 3
-2 11 3
-2 12 3
-2 13 3
-2 14 3
-3 0 3
-3 1 3
-3 2 3
-3 3 3
-3 4 3
-3 5 3
-3 6 3
-3 7 3
-3 8 3
-3 9 3
-3 10 3
-3 11 3
-3 12 3
-3 13 3
-3 14 3
-4 0 3
-4 1 3
-4 2 3
-4 3 3
-4 4 3
-4 5 3
-4 6 3
-4 7 3
-4 8 3
-4 9 3
-4 10 3
-4 11 3
-4 12 3
-4 13 3
-4 14 3
-5 0 3
-5 1 3
-5 2 3
-5 3 3
-5 4 3
-5 5 3
-5 6 3
-5 7 3
-5 8 3
-5 9 3
-5 10 3
-5 11 3
-5 12 3
-5 13 3
-5 14 3
-6 0 3
-6 1 3
-6 2 3
-6 3 3
-6 4 3
-6 5 3
-6 6 3
-6 7 3
-6 8 3
-6 9 3
-6 10 3
-6 11 3
-6 12 3
-6 13 3
-6 14 3
-7 0 3
-7 1 3
-7 2 3
-7 3 3
-7 4 3
-7 5 3
-7 6 3
-7 7 3
-7 8 3
-7 9 3
-7 10 3
-7 11 3
-7 12 3
-7 13 3
-7 14 3
-8 0 3
-8 1 3
-8 2 3
-8 3 3
-8 4 3
-8 5 3
-8 6 3
-8 7 3
-8 8 3
-8 9 3
-8 10 3
-8 11 3
-8 12 3
-8 13 3
-8 14 3
-9 0 3
-9 1 3
-9 2 3
-9 3 3
-9 4 3
-9 5 3
-9 6 3
-9 7 3
-9 8 3
-9 9 3
-9 10 3
-9 11 3
-9 12 3
-9 13 3
-9 14 3
-10 0 3
-10 1 3
-10 2 3
-10 3 3
-10 4 3
-10 5 3
-10 6 3
-10 7 3
-10 8 3
-10 9 3
-10 10 3
-10 11 3
-10 12 3
-10 13 3
-10 14 3
-11 0 3
-11 1 3
-11 2 3
-11 3 3
-11 4 3
-11 5 3
-11 6 3
-11 7 3
-11 8 3
-11 9 3
-11 10 3
-11 11 3
-11 12 3
-11 13 3
-11 14 3
-12 0 3
-12 1 3
-12 2 3
-12 3 3
-12 4 3
-12 5 3
-12 6 3
-12 7 3
-12 8 3
-12 9 3
-12 10 3
-12 11 3
-12 12 3
-12 13 3
-12 14 3
-13 0 3
-13 1 3
-13 2 3
-13 3 3
-13 4 3
-13 5 3
-13 6 3
-13 7 3
-13 8 3
-13 9 3
-13 10 3
-13 11 3
-13 12 3
-13 13 3
-13 14 3
0 0 4
-1 0 4
-1 1 4
0 1 4
-1 2 4
0 2 4
-1 3 4
0 3 4
-1 4 4
0 4 4
-1 5 4
0 5 4
-1 6 4
0 6 4
-1 7 4
0 7 4
-1 8 4
0 8 4
-1 9 4
0 9 4
-1 10 4
0 10 4
-1 11 4
0 11 4
-1 12 4
0 12 4
-1 13 4
0 13 4
-1 14 4
0 14 4
-2 0 4
-2 1 4
-2 2 4
-2 3 4
-2 4 4
-2 5 4
-2 6 4
-2 7 4
-2 8 4
-2 9 4
-2 10 4
-2 11 4
-2 12 4
-2 13 4
-2 14 4
-3 0 4
-3 1 4
-3 2 4
-3 3 4
-3 4 4
-3 5 4
-3 6 4
-3 7 4
-3 8 4
-3 9 4
-3 10 4
-3 11 4
-3 12 4
-3 13 4
-3 14 4
-4 0 4
-4 1 4
-4 2 4
-4 3 4
-4 4 4
-4 5 4
-4 6 4
-4 7 4
-4 8 4
-4 9 4
-4 10 4
-4 11 4
-4 12 4
-4 13 4
-4 14 4
-5 0 4
-5 1 4
-5 2 4
-5 3 4
-5 4 4
-5 5 4
-5 6 4
-5 7 4
-5 8 4
-5 9 4
-5 10 4
-5 11 4
-5 12 4
-5 13 4
-5 14 4
-6 0 4
-6 1 4
-6 2 4
-6 3 4
-6 4 4
-6 5 4
-6 6 4
-6 7 4
-6 8 4
-6 9 4
-6 10 4
-6 11 4
-6 12 4
-6 13 4
-6 14 4
-7 0 4
-7 1 4
-7 2 4
-7 3 4
-7 4 4
-7 5 4
-7 6 4
-7 7 4
-7 8 4
-7 9 4
-7 10 4
-7 11 4
-7 12 4
-7 13 4
-7 14 4
-8 0 4
-8 1 4
-8 2 4
-8 3 4
-8 4 4
-8 5 4
-8 6 4
-8 7 4
-8 8 4
-8 9 4
-8 10 4
-8 11 4
-8 12 4
-8 13 4
-8 14 4
-9 0 4
-9 1 4
-9 2 4
-9 3 4
-9 4 4
-9 5 4
-9 6 4
-9 7 4
-9 8 4
-9 9 4
-9 10 4
-9 11 4
-9 12 4
-9 13 4
-9 14 4
-10 0 4
-10 1 4
-10 2 4
-10 3 4
-10 4 4
-10 5 4
-10 6 4
-10 7 4
-10 8 4
-10 9 4
-10 10 4
-10 11 4
-10 12 4
-10 13 4
-10 14 4
-11 0 4
-11 1 4
-11 2 4
-11 3 4
-11 4 4
-11 5 4
-11 6 4
-11 7 4
-11 8 4
-11 9 4
-11 10 4
-11 11 4
-11 12 4
-11 13 4
-11 14 4
-12 0 4
-12 1 4
-12 2 4
-12 3 4
-12 4 4
-12 5 4
-12 6 4
-12 7 4
-12 8 4
-12 9 4
-12 10 4
-12 11 4
-12 12 4
-12 13 4
-12 14 4
-13 0 4
-13 1 4
-13 2 4
-13 3 4
-13 4 4
-13 5 4
-13 6 4
-13 7 4
-13 8 4
-13 9 4
-13 10 4
-13 11 4
-13 12 4
-13 13 4
-13 14 4
0 0 5
-1 0 5
-1 1 5
0 1 5
-1 2 5
0 2 5
-1 3 5
0 3 5
-1 4 5
0 4 5
-1 5 5
0 5 5
-1 6 5
0 6 5
-1 7 5
0 7 5
-1 8 5
0 8 5
-1 9 5
0 9 5
-1 10 5
0 10 5
-1 11 5
0 11 5
-1 12 5
0 12 5
-1 13 5
0 13 5
-1 14 5
0 14 5
-2 0 5
-2 1 5
-2 2 5
-2 3 5
-2 4 5
-2 5 5
-2 6 5
-2 7 5
-2 8 5
-2 9 5
-2 10 5
-2 11 5
-2 12 5
-2 13 5
-2 14 5
-3 0 5
-3 1 5
-3 2 5
-3 3 5
-3 4 5
-3 5 5
-3 6 5
-3 7 5
-3 8 5
-3 9 5
-3 10 5
-3 11 5
-3 12 5
-3 13 5
-3 14 5
-4 0 5
-4 1 5
-4 2 5
-4 3 5
-4 4 5
-4 5 5
-4 6 5
-4 7 5
-4 8 5
-4 9 5
-4 10 5
-4 11 5
-4 12 5
-4 13 5
-4 14 5
-5 0 5
-5 1 5
-5 2 5
-5 3 5
-5 4 5
-5 5 5
-5 6 5
-5 7 5
-5 8 5
-5 9 5
-5 10 5
-5 11 5
-5 12 5
-5 13 5
-5 14 5
-6 0 5
-6 1 5
-6 2 5
-6 3 5
-6 4 5
-6 5 5
-6 6 5
-6 7 5
-6 8 5
-6 9 5
-6 10 5
-6 11 5
-6 12 5
-6 13 5
-6 14 5
-7 0 5
-7 1 5
-7 2 5
-7 3 5
-7 4 5
-7 5 5
-7 6 5
-7 7 5
-7 8 5
-7 9 5
-7 10 5
-7 11 5
-7 12 5
-7 13 5
-7 14 5
-8 0 5
-8 1 5
-8 2 5
-8 3 5
-8 4 5
-8 5 5
-8 6 5
-8 7 5
-8 8 5
-8 9 5
-8 10 5
-8 11 5
-8 12 5
-8 13 5
-8 14 5
-9 0 5
-9 1 5
-9 2 5
-9 3 5
-9 4 5
-9 5 5
-9 6 5
-9 7 5
-9 8 5
-9 9 5
-9 10 5
-9 11 5
-9 12 5
-9 13 5
-9 14 5
-10 0 5
-10 1 5
-10 2 5
-10 3 5
-10 4 5
-10 5 5
-10 6 5
-10 7 5
-10 8 5
-10 9 5
-10 10 5
-10 11 5
-10 12 5
-10 13 5
-10 14 5
-11 0 5
-11 1 5
-11 2 5
-11 3 5
-11 4 5
-11 5 5
-11 6 5
-11 7 5
-11 8 5
-11 9 5
-11 10 5
-11 11 5
-11 12 5
-11 13 5
-11 14 5
-12 0 5
-12 1 5
-12 2 5
-12 3 5
-12 4 5
-12 5 5
-12 6 5
-12 7 5
-12 8 5
-12 9 5
-12 10 5
-12 11 5
-12 12 5
-12 13 5
-12 14 5
-13 0 5
-13 1 5
-13 2 5
-13 3 5
-13 4 5
-13 5 5
-13 6 5
-13 7 5
-13 8 5
-13 9 5
-13 10 5
-13 11 5
-13 12 5
-13 13 5
-13 14 5
0 0 6
-1 0 6
-1 1 6
0 1 6
-1 2 6
0 2 6
-1 3 6
0 3 6
-1 4 6
0 4 6
-1 5 6
0 5 6
-1 6 6
0 6 6
-1 7 6
0 7 6
-1 8 6
0 8 6
-1 9 6
0 9 6
-1 10 6
0 10 6
-1 11 6
0 11 6
-1 12 6
0 12 6
-1 13 6
0 13 6
-1 14 6
0 14 6
-2 0 6
-2 1 6
-2 2 6
-2 3 6
-2 4 6
-2 5 6
-2 6 6
-2 7 6
-2 8 6
-2 9 6
-2 10 6
-2 11 6
-2 12 6
-2 13 6
-2 14 6
-3 0 6
-3 1 6
-3 2 6
-3 3 6
-3 4 6
-3 5 6
-3 6 6
-3 7 6
-3 8 6
-3 9 6
-3 10 6
-3 11 6
[...]
CELL_DATA 13845
SCALARS scalars float
LOOKUP_TABLE default
609541.050795 561962.918179 577833.521706 586224.537518 590951.831012 591096.797523 586910.745648 579997.585961 572416.682880 566019.925445 562238.320077 561157.940229 557515.782303 735759.769300 324231.853136 341872.196437 357726.173400 368469.560176 376907.324863 382324.375174 384507.063598 384006.563302 381836.338324 379104.075252 376768.172184 375139.135015 370785.883664 408371.671676 314261.886630 346202.470467 366145.157048 379145.051762 388520.707318 393879.075735 395209.567386 393134.477561 388703.905349 383110.097591 377337.549596 371774.785983 362922.574983 388417.768785 305545.183564 345567.171398 369413.229977 384805.416957 395443.974392 401141.934803 402048.554367 398844.316550 392562.547738 384455.436835 375598.531283 366551.912913 354408.257735 372122.032865 305160.833558 345588.623695 372470.227114 389796.988958 401585.673484 408232.412094 409374.442898 405101.203793 397049.498225 386474.328856 374572.019069 362036.957689 345866.462713 357924.786152 301917.980293 347071.650118 378207.915684 398104.829460 410970.109204 416413.873545 417194.980947 412221.064506 402520.331638 389554.703109 374580.244638 358556.889903 339188.096719 346292.177584 295692.423591 349933.379368 385336.539429 406649.334845 419561.930874 424935.527608 426378.800203 420370.739060 409266.486357 394083.927046 376052.038486 356227.867395 332097.877924 334843.048980 296013.676293 355195.730345 395100.955890 417566.258874 430245.255723 435230.867118 436261.557177 429538.502301 417430.749249 400494.286807 379612.058764 355816.738938 327403.082118 326026.821409 299961.658739 362090.484870 406697.419242 429419.547456 441266.276004 445750.177882 446399.756581 439292.404046 426833.127668 408999.420440 385966.602613 358027.018405 322346.361148 316222.879196 296637.798058 369179.452620 419427.081946 441350.176270 451644.582308 455449.264613 455600.810899 448506.553586 436508.153945 419011.163740 395397.690577 364162.836901 321109.836511 309796.785857 293602.018396 370877.430100 426181.308118 447379.917219 456179.123229 459611.302743 459424.963703 452810.876753 442183.327202 426396.544311 404309.413152 371786.019111 317519.970829 300375.125231 294896.210298 356104.294816 405112.450438 427277.596641 435956.644516 440429.242343 440835.293840 435225.079122 426840.363502 413225.554139 394100.995663 365823.829084 311853.792663 286149.846466 340665.433643 434560.949643 464474.941142 485469.473732 499607.377562 495057.701750 491097.598077 490318.999761 475624.468004 454731.596357 438621.447433 412509.125468 355329.897520 269886.258702 613299.832938 567061.314259 583029.842379 591493.547662 596325.113437 596363.652957 591879.193508 584480.755867 576346.642011 569545.438685 565500.802032 564268.632624 560287.768491 735997.606290 326639.263145 345192.859123 361133.185013 371947.266611 380512.219258 385954.481814 388053.194772 387344.791862 384884.132491 381889.042200 379363.149834 377640.231339 373086.456490 409770.231913 316205.259503 349417.867402 369662.810971 382915.654154 392508.374050 397938.230303 399174.002075 396838.663946 392034.393415 386024.589091 379924.531694 374094.528930 364930.707674 389417.536760 307488.369120 348932.565369 373226.132185 388969.391506 399867.814470 405715.961122 406589.723601 403118.258439 396427.779299 387811.496992 378470.629648 368972.943743 356354.499678 372826.345356 307312.534333 349752.040591 377671.663062 395662.270737 407721.395023 413936.539864 414476.462948 409984.296116 401550.722175 390445.389971 377935.680704 364774.013908 347943.643317 358638.479706 304343.384997 351469.403338 383346.977625 403399.233499 416377.325070 422827.488546 423093.975692 417735.955759 407696.472331 394206.562943 378580.515007 361790.493710 341546.094742 347002.410631 298238.186913 354470.767845 390698.445267 412500.777427 426048.371033 432553.282203 432547.497886 426463.141478 415088.998247 399459.459829 380782.091181 360128.252274 334970.497492 335921.557202 298494.479106 359548.933806 400140.567191 423151.933693 436734.553213 442965.846637 442603.897181 436006.482341 423726.929687 406479.597644 385075.233467 360437.719282 330790.379689 327423.579294 302355.859566 366503.842590 411832.277517 435201.094840 448007.884142 453524.570021 452702.923782 445878.497776 433374.987637 415353.096950 391973.556701 363281.290676 326332.764772 318154.763978 298876.147171 373951.515677 424909.290164 447462.396833 458526.542258 462888.802635 461596.759347 454893.914833 442936.298079 425417.926985 401627.386208 369889.862594 325739.628330 312421.871130 295855.270860 376382.510045 432333.117444 453781.736044 462931.867398 466348.216896 464915.438538 458748.405636 448163.732741 432445.158954 410431.156566 377817.280954 322838.500454 303829.363137 297404.151333 361792.553526 411383.308514 433378.659874 442005.848713 445945.581705 445459.221687 440271.130295 431873.302730 418467.145908 399623.812159 371510.463937 317401.901909 290555.774203 343629.328719 439516.405384 469231.278738 489439.095795 502718.358496 495836.382952 490765.975353 490989.687442 476786.338914 456351.162562 440654.913674 415356.726148 359527.240083 275139.487736 633468.229968 586015.028028 602601.226362 611268.209206 616188.797240 616180.399602 611490.832858 603815.821200 595415.361059 588385.793370 584241.779774 582998.353735 578870.104814 759963.080565 337866.784270 357217.271873 373742.968983 384866.995898 393658.285243 399256.650995 401420.555408 400683.439330 398131.699815 395022.772373 392407.222008 390630.675636 385937.376585 423761.742352 327360.001630 361870.260589 382843.329927 396492.058466 406340.961690 411916.526990 413185.493798 410758.822414 405771.073976 399535.450347 393194.225032 387151.340848 377692.001574 402932.937684 318502.563571 361530.831079 386701.254653 402948.960838 414170.033973 420165.128143 421031.983993 417419.084322 410469.880427 401549.270497 391878.231542 382037.527644 368986.879599 385931.403266 318505.760191 362545.866732 391467.528723 410062.694283 422459.986736 428832.691850 429384.185192 424716.509795 415936.837785 404430.378598 391486.670248 377874.940296 360468.959544 371454.222895 315579.644715 364521.905412 397549.094847 418262.647928 431629.504713 438255.860950 438507.751036 432909.263444 422459.348581 408478.416129 392308.704402 374940.696163 353975.849704 359565.758943 309400.887820 367810.759022 405373.249289 427907.943529 441885.285279 448547.831847 448457.504169 442082.999184 430251.486899 414055.257475 394723.603876 373325.398022 347265.611370 348208.405839 309819.288624 373250.799423 415349.709950 439170.362995 453176.303117 459517.443653 459041.156561 452135.042078 439354.842128 421448.525468 399255.243313 373744.233696 343025.016745 339583.735468 313994.724919 380677.760502 427687.163736 451858.213500 465056.343286 470635.012311 469693.625921 462533.146323 449476.545296 430732.623655 406467.473976 376774.488186 338500.855130 330188.157449 310611.138191 388606.411145 441479.348166 464776.623364 476140.137861 480554.365313 479098.646114 472026.707246 459511.197534 441276.378281 416577.416863 383679.511618 337939.773726 324550.356613 307771.153047 391346.038440 449374.561986 471517.456191 480893.575928 484287.966501 482680.440006 476194.124853 465116.311838 448769.663451 425851.755833 391950.630849 334993.340606 315761.313585 309672.595446 376370.597423 427692.909789 450315.722714 459142.357468 463111.418079 462527.163030 457084.259657 448301.770392 434402.991306 414802.313748 385588.311412 329615.903694 302020.580202 357798.604682 456977.025877 487475.260516 508054.685684 521699.063021 514591.823598 509067.921138 509092.177500 494572.873201 473239.642185 456775.704387 431057.046458 373360.722931 285726.244738 658861.817552 609825.820097 627012.867759 635973.819603 641005.341677 640903.712151 635964.999500 627933.050308 619185.554577 611876.556913 607530.906562 606234.672688 601962.554554 789535.101302 351880.125689 372237.126816 389403.363957 400963.412761 410093.939125 415876.574857 418067.525299 417249.826845 414582.076925 411356.385406 408619.676685 406764.077524 401876.131024 441003.190962 341179.271230 377313.562226 399146.576181 413329.107687 423569.355512 429333.861033 430586.888695 428003.390380 422800.673313 416320.060991 409696.076693 403393.341520 393531.065046 419607.092378 332080.820527 377099.734259 403339.739318 420236.470526 431894.643066 438074.043543 438942.155569 435159.317503 427898.405764 418584.019099 408497.002095 398253.391316 384647.162476 402120.893267 332191.033053 378291.950497 408480.786945 427850.660215 440747.726612 447310.569666 447826.759435 442940.204399 433777.679476 421755.021479 408268.854002 394087.843886 375916.087394 387219.082319 329287.228192 380505.511928 414991.468336 436592.320479 450500.984897 457346.722706 457531.206666 451653.033742 440756.174148 426166.857519 409291.882659 391182.154568 369332.978154 375007.758876 322991.240098 384123.388011 423353.922456 446858.505554 461374.546132 468269.216005 468117.998464 461422.078484 449048.954406 432115.674239 411937.847960 389639.108798 362466.239656 363282.609516 323579.196856 390004.122543 434001.845993 458825.245800 473370.875012 479944.673516 479368.411605 472083.421408 458682.868392 439931.734247 416774.029807 390176.845793 358110.932074 354424.894117 328120.213200 397957.042519 447117.099255 472322.140092 486024.731143 491784.273560 490688.079226 483114.516294 469391.016822 449752.990447 424400.333165 393411.453948 353486.104211 344837.329056 324773.266335 406485.229602 461785.062709 486077.660848 497844.707893 502339.428668 500717.707953 493238.116131 480054.183996 460905.303313 435049.307693 400672.226290 352956.476366 339329.820917 322093.984810 409612.033298 470266.009921 493321.201861 503024.355172 506476.338179 504664.853345 497757.992405 486094.524370 468925.961134 444891.736632 409419.404677 349949.556388 330243.261313 324365.251235 394107.000652 447730.907941 471293.738292 480417.277081 484431.506914 483721.031432 477947.497448 468680.136674 454131.879757 433539.147396 402923.070355 344479.223852 315765.416556 374800.155498 478258.013115 509959.593750 531189.608568 545256.658509 537830.459352 531781.535522 531537.877433 516587.180624 494175.826446 476588.286406 449980.500762 389792.407394 298290.003444 687701.606605 636821.231660 654783.540390 664071.981297 669211.815409 669064.585803 663882.021143 655476.708861 646319.290644 638672.281340 634130.002354 632750.724301 628206.091923 823104.704287 367780.232270 389186.387566 407133.069571 419188.545035 428660.024642 434667.500937 436938.678679 436096.124127 433300.175795 429896.099094 427052.147248 425119.194914 419971.451916 460596.374815 356763.219525 394691.326764 417518.635649 432326.511712 442966.613336 448942.153304 450226.380817 447546.545561 442084.914332 435278.836947 428391.991210 421806.194281 411457.291993 438484.104555 347363.669239 394594.136263 422050.457921 439681.022619 451821.730418 458276.846502 459151.009459 455169.459951 447558.916297 437823.795334 427291.440462 416579.609169 402339.551600 420394.880580 347602.036435 395983.943038 427578.659033 447764.535540 461224.679784 468117.813949 468638.843218 463477.691855 453866.078048 441297.342814 427201.107458 412381.345597 393397.678257 405018.698592 344678.252078 398440.869509 434529.037948 457103.756092 471649.675255 478791.474345 478948.139523 472757.182971 461307.553795 446040.019573 428418.901409 409492.633646 386632.982120 392396.513161 338187.197307 402369.865068 443458.371115 468063.512472 483254.717070 490410.190772 490183.521082 483127.120904 470132.474517 452404.154324 431301.051635 407992.535210 379556.723229 380246.304812 338927.641305 408698.122098 454821.652956 480806.390731 495994.484098 502808.080905 502144.238476 494451.063123 480367.158408 460702.161987 436432.538932 408622.391386 375054.664830 371110.824692 343846.473184 417219.984810 468758.639730 495146.452831 509440.352696 515385.058814 514164.215404 506146.522757 491668.262311 471030.166283 444427.301173 412001.072545 370236.672944 361229.163342 340561.983882 426360.798494 484328.005670 509744.532575 522044.241700 526666.696811 524854.358526 516883.776252 502945.153797 482768.574864 455562.498500 419564.719809 369669.326935 355761.556879 338027.974396 429840.097786 493449.542321 517563.231707 527652.662985 531183.655338 529173.956405 521787.210712 509415.025915 491283.579192 465963.324655 428719.273657 366479.082063 346302.197644 340613.133714 413716.130743 469956.080509 494558.276733 504029.719017 508163.953022 507304.211137 501119.459037 491257.449485 475907.576702 454195.038054 421962.182759 360778.678125 330928.616005 393538.751498 501723.126244 534838.542563 556810.766351 571420.303295 563685.670799 556974.295674 556407.091978 540988.799128 517222.104433 498318.263490 470688.976686 407778.304573 312101.716161 719990.447721 666997.241055 685781.062814 695435.984777 700800.635734 700573.378843 695084.381434 686260.697349 676642.138341 668596.400644 663828.637353 662347.250029 657553.899589 860522.409554 385507.448926 408067.371618 426883.148203 439508.563079 449424.358995 455682.361801 458065.727968 457144.574497 454186.765016 450622.172733 447628.643579 445587.404187 440177.775822 482452.551415 374101.659869 414009.079925 437926.716085 453425.863180 464559.557348 470829.929575 472198.972946 469332.449205 463600.845449 456477.110823 449219.334312 442312.060855 431438.439568 459495.579789 364371.617913 414045.431359 442836.036244 461306.243828 474034.403895 480791.805676 481703.659233 477504.382872 469536.679192 459325.932506 448257.809606 437017.723388 422054.133708 440750.616772 364713.374531 415596.289330 448754.559048 469991.221622 484101.640798 491261.963883 491784.363372 486376.365307 476303.082992 463122.746937 448325.248269 432768.204093 412838.126069 424831.656476 361723.213258 418308.536880 456205.403851 479906.703798 495151.556336 502626.549551 502770.270906 496260.733426 484257.228845 468243.522637 449731.272311 429866.193848 405881.117720 411742.066442 355038.519465 422584.663869 465751.438107 491564.378354 507516.893763 515025.580012 514745.132222 507290.488754 493628.156499 475005.377578 452868.087039 428396.107000 398535.893106 399088.666989 355958.567927 429378.384562 477850.511731 505159.558598 521136.601510 528246.213520 527453.428846 519290.972107 504417.496517 483737.272767 458281.039147 429087.939348 393815.394611 389596.672736 361270.955219 438515.886412 492731.505630 520434.018443 535412.365529 541622.422283 540240.304172 531681.930034 516380.286558 494620.779476 466646.596352 432615.834527 388782.420753 379370.228685 358057.075590 448317.172290 509307.669064 536001.652062 548847.348174 553614.763761 551591.048244 543093.065541 528309.446770 506968.245296 478339.276733 440517.951961 388175.906437 373966.222058 355636.766229 452184.403983 519064.014776 544384.518954 554909.639838 558439.151925 556233.396681 548375.489912 535190.418529 515991.811210 489279.077272 450084.118060 384762.561521 364033.902230 358508.178230 435345.847328 494448.427148 520247.588931 530125.131713 534311.877845 533302.136821 526670.046322 516151.096667 499961.362076 476958.818244 442961.836863 378767.417721 347559.893130 414151.874913 527638.374865 562373.730604 585187.015462 600342.606815 592214.954964 584756.963295 583773.934966 567844.484693 542662.524279 522215.781578 493438.636736 427636.198751 327337.442967 755841.357512 700590.658147 720281.154784 730334.854001 735830.876845 735548.055204 729773.360917 720492.057468 710382.801243 701922.993051 696856.349331 695187.444268 690023.383012 901623.240644 405272.766771 429133.535626 448910.833409 462130.188206 472518.415997 479098.625875 481565.734373 480589.179301 477492.122576 473726.964600 470539.695907 468327.530061 462582.664366 506648.019253 393389.969997 435470.785128 460624.551534 476927.789621 488632.019691 495182.341647 496570.914913 493560.749308 487553.797237 480054.218861 472388.436622 465088.840821 453595.154038 482764.031387 383264.104172 435627.308459 465926.846635 485379.987475 498728.643283 505800.419952 506751.763244 502332.551779 493943.354549 483221.344046 471587.301167 459732.962516 443928.903658 463260.780593 383744.004004 437433.518184 472329.080546 494621.278694 509464.644742 517026.961020 517579.226197 511870.009065 501262.347935 487386.046975 471831.343610 455457.429309 434417.435100 446733.727985 380720.420325 440427.971062 480340.243103 505288.727244 521328.128615 529188.005517 529346.574840 522468.110867 509798.840144 492918.249930 473458.934790 452572.448286 427283.647122 433182.836538 373852.377991 445081.440938 490575.440779 517792.052697 534537.059686 542420.699861 542125.763333 534220.267675 519780.092452 500170.036593 476855.561105 451107.336793 419687.592743 420039.629352 375005.707088 452424.306821 503508.032931 532281.031601 549056.912692 556519.224178 555656.351608 546996.398304 531289.955081 509472.396038 482603.977487 451860.679886 414710.875675 410188.663379 380780.658299 462241.240267 519380.828464 548603.863850 564339.115266 570789.392164 569243.294219 560156.286707 543934.870893 520923.069846 491427.270220 455560.625057 409397.665508 399561.525835 377574.234255 472800.401936 537091.612704 565201.629229 578677.600670 583604.244577 581348.695513 572246.201554 556531.689226 533950.443672 503677.195247 463770.295473 408690.127243 394097.926946 375189.600937 477094.896262 547655.475854 574257.367432 585245.516012 588900.405890 586400.747583 577908.061581 563875.979903 543491.589287 515148.663840 473764.359856 404970.028003 383510.892663 378362.389794 459439.636296 521764.820750 548861.491397 559176.388054 563476.960027 562246.548214 555107.140318 543859.401374 526637.762704 502207.428971 466219.099376 398612.768484 365814.930101 437140.785256 556548.945516 593008.127280 616711.953482 632479.199429 623909.424996 615656.210771 614283.424536 597648.772942 570773.184064 548693.781837 518607.574962 449598.215281 344213.258677 795662.422041 737934.634741 758567.101891 769046.565813 774805.289408 774423.997288 768269.241287 758457.883401 747773.879662 738806.446197 733401.765704 731610.832630 726068.744135 947149.800359 427304.183212 452628.370530 473429.671047 487329.576649 498267.052202 505151.414143 507714.973405 506669.290015 503381.885157 499410.453116 496041.207150 493682.415386 487551.129141 533517.310537 414911.959546 459458.172744 485966.452123 503103.988699 515417.531447 522316.866940 523767.197433 520592.326450 514215.381568 506293.244528 498227.922909 490459.410801 478250.024779 508587.946155 404344.751092 459739.227782 491682.955510 512171.807973 526273.542354 533747.864908 534720.481246 530052.296029 521190.553404 509853.954208 497552.664383 485010.070354 468280.758850 488294.819237 404964.803860 461752.728155 498606.995658 522156.361484 537812.967432 545776.062169 546322.456166 540271.039155 529077.184346 514460.264686 498015.051353 480692.794213 458455.069477 471115.665044 401933.703406 465085.857961 507258.160880 533607.477845 550530.462664 558793.888431 558916.032168 551638.426359 538254.910817 520449.131816 499905.164550 477814.836943 451088.647741 457029.680370 394829.561291 470179.908621 518253.639795 546998.733179 564689.513836 572964.902154 572595.456653 564236.004966 548967.279526 528223.117563 503603.623122 476408.057542 443200.326125 443328.975358 396187.317757 478120.214709 532152.457993 562549.216965 580240.687685 588070.989164 587091.936881 577866.503118 561195.572820 538090.245543 509712.802154 477241.860415 437950.025642 433067.345337 402451.365387 488705.673144 549148.153074 579999.618305 596597.049573 603343.555716 601616.117810 591875.921476 574604.885560 550200.452065 518973.044117 481093.330707 432315.670715 421882.380236 399218.243492 500067.439430 568103.215598 597778.165445 611948.537012 617048.899822 614524.264093 604748.824779 587969.579496 563934.625698 531828.077225 489651.156628 431497.190454 416328.863566 396898.102465 504848.821325 579493.994421 607557.614698 619070.736375 622763.082298 619969.358974 610832.387088 595793.320766 574053.636631 54393