# vtk DataFile Version 3.0
vtk output
ASCII
DATASET UNSTRUCTURED_GRID
POINTS 16310 float
0 0 0
-1 0 0
-1 1 0
0 1 0
0 0 1
-1 0 1
-1 1 1
0 1 1
-1 2 0
0 2 0
-1 2 1
0 2 1
-1 3 0
0 3 0
-1 3 1
0 3 1
-1 4 0
0 4 0
-1 4 1
0 4 1
-1 5 0
0 5 0
-1 5 1
0 5 1
-1 6 0
0 6 0
-1 6 1
0 6 1
-1 7 0
0 7 0
-1 7 1
0 7 1
-1 8 0
0 8 0
-1 8 1
0 8 1
-1 9 0
0 9 0
-1 9 1
0 9 1
-1 10 0
0 10 0
-1 10 1
0 10 1
-1 11 0
0 11 0
-1 11 1
0 11 1
-1 12 0
0 12 0
-1 12 1
0 12 1
-1 13 0
0 13 0
-1 13 1
0 13 1
-1 14 0
0 14 0
-1 14 1
0 14 1
-2 0 0
-2 1 0
-2 0 1
-2 1 1
-2 2 0
-2 2 1
-2 3 0
-2 3 1
-2 4 0
-2 4 1
-2 5 0
-2 5 1
-2 6 0
-2 6 1
-2 7 0
-2 7 1
-2 8 0
-2 8 1
-2 9 0
-2 9 1
-2 10 0
-2 10 1
-2 11 0
-2 11 1
-2 12 0
-2 12 1
-2 13 0
-2 13 1
-2 14 0
-2 14 1
-3 0 0
-3 1 0
-3 0 1
-3 1 1
-3 2 0
-3 2 1
-3 3 0
-3 3 1
-3 4 0
-3 4 1
-3 5 0
-3 5 1
-3 6 0
-3 6 1
-3 7 0
-3 7 1
-3 8 0
-3 8 1
-3 9 0
-3 9 1
-3 10 0
-3 10 1
-3 11 0
-3 11 1
-3 12 0
-3 12 1
-3 13 0
-3 13 1
-3 14 0
-3 14 1
-4 0 0
-4 1 0
-4 0 1
-4 1 1
-4 2 0
-4 2 1
-4 3 0
-4 3 1
-4 4 0
-4 4 1
-4 5 0
-4 5 1
-4 6 0
-4 6 1
-4 7 0
-4 7 1
-4 8 0
-4 8 1
-4 9 0
-4 9 1
-4 10 0
-4 10 1
-4 11 0
-4 11 1
-4 12 0
-4 12 1
-4 13 0
-4 13 1
-4 14 0
-4 14 1
-5 0 0
-5 1 0
-5 0 1
-5 1 1
-5 2 0
-5 2 1
-5 3 0
-5 3 1
-5 4 0
-5 4 1
-5 5 0
-5 5 1
-5 6 0
-5 6 1
-5 7 0
-5 7 1
-5 8 0
-5 8 1
-5 9 0
-5 9 1
-5 10 0
-5 10 1
-5 11 0
-5 11 1
-5 12 0
-5 12 1
-5 13 0
-5 13 1
-5 14 0
-5 14 1
-6 0 0
-6 1 0
-6 0 1
-6 1 1
-6 2 0
-6 2 1
-6 3 0
-6 3 1
-6 4 0
-6 4 1
-6 5 0
-6 5 1
-6 6 0
-6 6 1
-6 7 0
-6 7 1
-6 8 0
-6 8 1
-6 9 0
-6 9 1
-6 10 0
-6 10 1
-6 11 0
-6 11 1
-6 12 0
-6 12 1
-6 13 0
-6 13 1
-6 14 0
-6 14 1
-7 0 0
-7 1 0
-7 0 1
-7 1 1
-7 2 0
-7 2 1
-7 3 0
-7 3 1
-7 4 0
-7 4 1
-7 5 0
-7 5 1
-7 6 0
-7 6 1
-7 7 0
-7 7 1
-7 8 0
-7 8 1
-7 9 0
-7 9 1
-7 10 0
-7 10 1
-7 11 0
-7 11 1
-7 12 0
-7 12 1
-7 13 0
-7 13 1
-7 14 0
-7 14 1
-8 0 0
-8 1 0
-8 0 1
-8 1 1
-8 2 0
-8 2 1
-8 3 0
-8 3 1
-8 4 0
-8 4 1
-8 5 0
-8 5 1
-8 6 0
-8 6 1
-8 7 0
-8 7 1
-8 8 0
-8 8 1
-8 9 0
-8 9 1
-8 10 0
-8 10 1
-8 11 0
-8 11 1
-8 12 0
-8 12 1
-8 13 0
-8 13 1
-8 14 0
-8 14 1
-9 0 0
-9 1 0
-9 0 1
-9 1 1
-9 2 0
-9 2 1
-9 3 0
-9 3 1
-9 4 0
-9 4 1
-9 5 0
-9 5 1
-9 6 0
-9 6 1
-9 7 0
-9 7 1
-9 8 0
-9 8 1
-9 9 0
-9 9 1
-9 10 0
-9 10 1
-9 11 0
-9 11 1
-9 12 0
-9 12 1
-9 13 0
-9 13 1
-9 14 0
-9 14 1
-10 0 0
-10 1 0
-10 0 1
-10 1 1
-10 2 0
-10 2 1
-10 3 0
-10 3 1
-10 4 0
-10 4 1
-10 5 0
-10 5 1
-10 6 0
-10 6 1
-10 7 0
-10 7 1
-10 8 0
-10 8 1
-10 9 0
-10 9 1
-10 10 0
-10 10 1
-10 11 0
-10 11 1
-10 12 0
-10 12 1
-10 13 0
-10 13 1
-10 14 0
-10 14 1
-11 0 0
-11 1 0
-11 0 1
-11 1 1
-11 2 0
-11 2 1
-11 3 0
-11 3 1
-11 4 0
-11 4 1
-11 5 0
-11 5 1
-11 6 0
-11 6 1
-11 7 0
-11 7 1
-11 8 0
-11 8 1
-11 9 0
-11 9 1
-11 10 0
-11 10 1
-11 11 0
-11 11 1
-11 12 0
-11 12 1
-11 13 0
-11 13 1
-11 14 0
-11 14 1
-12 0 0
-12 1 0
-12 0 1
-12 1 1
-12 2 0
-12 2 1
-12 3 0
-12 3 1
-12 4 0
-12 4 1
-12 5 0
-12 5 1
-12 6 0
-12 6 1
-12 7 0
-12 7 1
-12 8 0
-12 8 1
-12 9 0
-12 9 1
-12 10 0
-12 10 1
-12 11 0
-12 11 1
-12 12 0
-12 12 1
-12 13 0
-12 13 1
-12 14 0
-12 14 1
-13 0 0
-13 1 0
-13 0 1
-13 1 1
-13 2 0
-13 2 1
-13 3 0
-13 3 1
-13 4 0
-13 4 1
-13 5 0
-13 5 1
-13 6 0
-13 6 1
-13 7 0
-13 7 1
-13 8 0
-13 8 1
-13 9 0
-13 9 1
-13 10 0
-13 10 1
-13 11 0
-13 11 1
-13 12 0
-13 12 1
-13 13 0
-13 13 1
-13 14 0
-13 14 1
0 0 2
-1 0 2
-1 1 2
0 1 2
-1 2 2
0 2 2
-1 3 2
0 3 2
-1 4 2
0 4 2
-1 5 2
0 5 2
-1 6 2
0 6 2
-1 7 2
0 7 2
-1 8 2
0 8 2
-1 9 2
0 9 2
-1 10 2
0 10 2
-1 11 2
0 11 2
-1 12 2
0 12 2
-1 13 2
0 13 2
-1 14 2
0 14 2
-2 0 2
-2 1 2
-2 2 2
-2 3 2
-2 4 2
-2 5 2
-2 6 2
-2 7 2
-2 8 2
-2 9 2
-2 10 2
-2 11 2
-2 12 2
-2 13 2
-2 14 2
-3 0 2
-3 1 2
-3 2 2
-3 3 2
-3 4 2
-3 5 2
-3 6 2
-3 7 2
-3 8 2
-3 9 2
-3 10 2
-3 11 2
-3 12 2
-3 13 2
-3 14 2
-4 0 2
-4 1 2
-4 2 2
-4 3 2
-4 4 2
-4 5 2
-4 6 2
-4 7 2
-4 8 2
-4 9 2
-4 10 2
-4 11 2
-4 12 2
-4 13 2
-4 14 2
-5 0 2
-5 1 2
-5 2 2
-5 3 2
-5 4 2
-5 5 2
-5 6 2
-5 7 2
-5 8 2
-5 9 2
-5 10 2
-5 11 2
-5 12 2
-5 13 2
-5 14 2
-6 0 2
-6 1 2
-6 2 2
-6 3 2
-6 4 2
-6 5 2
-6 6 2
-6 7 2
-6 8 2
-6 9 2
-6 10 2
-6 11 2
-6 12 2
-6 13 2
-6 14 2
-7 0 2
-7 1 2
-7 2 2
-7 3 2
-7 4 2
-7 5 2
-7 6 2
-7 7 2
-7 8 2
-7 9 2
-7 10 2
-7 11 2
-7 12 2
-7 13 2
-7 14 2
-8 0 2
-8 1 2
-8 2 2
-8 3 2
-8 4 2
-8 5 2
-8 6 2
-8 7 2
-8 8 2
-8 9 2
-8 10 2
-8 11 2
-8 12 2
-8 13 2
-8 14 2
-9 0 2
-9 1 2
-9 2 2
-9 3 2
-9 4 2
-9 5 2
-9 6 2
-9 7 2
-9 8 2
-9 9 2
-9 10 2
-9 11 2
-9 12 2
-9 13 2
-9 14 2
-10 0 2
-10 1 2
-10 2 2
-10 3 2
-10 4 2
-10 5 2
-10 6 2
-10 7 2
-10 8 2
-10 9 2
-10 10 2
-10 11 2
-10 12 2
-10 13 2
-10 14 2
-11 0 2
-11 1 2
-11 2 2
-11 3 2
-11 4 2
-11 5 2
-11 6 2
-11 7 2
-11 8 2
-11 9 2
-11 10 2
-11 11 2
-11 12 2
-11 13 2
-11 14 2
-12 0 2
-12 1 2
-12 2 2
-12 3 2
-12 4 2
-12 5 2
-12 6 2
-12 7 2
-12 8 2
-12 9 2
-12 10 2
-12 11 2
-12 12 2
-12 13 2
-12 14 2
-13 0 2
-13 1 2
-13 2 2
-13 3 2
-13 4 2
-13 5 2
-13 6 2
-13 7 2
-13 8 2
-13 9 2
-13 10 2
-13 11 2
-13 12 2
-13 13 2
-13 14 2
0 0 3
-1 0 3
-1 1 3
0 1 3
-1 2 3
0 2 3
-1 3 3
0 3 3
-1 4 3
0 4 3
-1 5 3
0 5 3
-1 6 3
0 6 3
-1 7 3
0 7 3
-1 8 3
0 8 3
-1 9 3
0 9 3
-1 10 3
0 10 3
-1 11 3
0 11 3
-1 12 3
0 12 3
-1 13 3
0 13 3
-1 14 3
0 14 3
-2 0 3
-2 1 3
-2 2 3
-2 3 3
-2 4 3
-2 5 3
-2 6 3
-2 7 3
-2 8 3
-2 9 3
-2 10 3
-2 11 3
-2 12 3
-2 13 3
-2 14 3
-3 0 3
-3 1 3
-3 2 3
-3 3 3
-3 4 3
-3 5 3
-3 6 3
-3 7 3
-3 8 3
-3 9 3
-3 10 3
-3 11 3
-3 12 3
-3 13 3
-3 14 3
-4 0 3
-4 1 3
-4 2 3
-4 3 3
-4 4 3
-4 5 3
-4 6 3
-4 7 3
-4 8 3
-4 9 3
-4 10 3
-4 11 3
-4 12 3
-4 13 3
-4 14 3
-5 0 3
-5 1 3
-5 2 3
-5 3 3
-5 4 3
-5 5 3
-5 6 3
-5 7 3
-5 8 3
-5 9 3
-5 10 3
-5 11 3
-5 12 3
-5 13 3
-5 14 3
-6 0 3
-6 1 3
-6 2 3
-6 3 3
-6 4 3
-6 5 3
-6 6 3
-6 7 3
-6 8 3
-6 9 3
-6 10 3
-6 11 3
-6 12 3
-6 13 3
-6 14 3
-7 0 3
-7 1 3
-7 2 3
-7 3 3
-7 4 3
-7 5 3
-7 6 3
-7 7 3
-7 8 3
-7 9 3
-7 10 3
-7 11 3
-7 12 3
-7 13 3
-7 14 3
-8 0 3
-8 1 3
-8 2 3
-8 3 3
-8 4 3
-8 5 3
-8 6 3
-8 7 3
-8 8 3
-8 9 3
-8 10 3
-8 11 3
-8 12 3
-8 13 3
-8 14 3
-9 0 3
-9 1 3
-9 2 3
-9 3 3
-9 4 3
-9 5 3
-9 6 3
-9 7 3
-9 8 3
-9 9 3
-9 10 3
-9 11 3
-9 12 3
-9 13 3
-9 14 3
-10 0 3
-10 1 3
-10 2 3
-10 3 3
-10 4 3
-10 5 3
-10 6 3
-10 7 3
-10 8 3
-10 9 3
-10 10 3
-10 11 3
-10 12 3
-10 13 3
-10 14 3
-11 0 3
-11 1 3
-11 2 3
-11 3 3
-11 4 3
-11 5 3
-11 6 3
-11 7 3
-11 8 3
-11 9 3
-11 10 3
-11 11 3
-11 12 3
-11 13 3
-11 14 3
-12 0 3
-12 1 3
-12 2 3
-12 3 3
-12 4 3
-12 5 3
-12 6 3
-12 7 3
-12 8 3
-12 9 3
-12 10 3
-12 11 3
-12 12 3
-12 13 3
-12 14 3
-13 0 3
-13 1 3
-13 2 3
-13 3 3
-13 4 3
-13 5 3
-13 6 3
-13 7 3
-13 8 3
-13 9 3
-13 10 3
-13 11 3
-13 12 3
-13 13 3
-13 14 3
0 0 4
-1 0 4
-1 1 4
0 1 4
-1 2 4
0 2 4
-1 3 4
0 3 4
-1 4 4
0 4 4
-1 5 4
0 5 4
-1 6 4
0 6 4
-1 7 4
0 7 4
-1 8 4
0 8 4
-1 9 4
0 9 4
-1 10 4
0 10 4
-1 11 4
0 11 4
-1 12 4
0 12 4
-1 13 4
0 13 4
-1 14 4
0 14 4
-2 0 4
-2 1 4
-2 2 4
-2 3 4
-2 4 4
-2 5 4
-2 6 4
-2 7 4
-2 8 4
-2 9 4
-2 10 4
-2 11 4
-2 12 4
-2 13 4
-2 14 4
-3 0 4
-3 1 4
-3 2 4
-3 3 4
-3 4 4
-3 5 4
-3 6 4
-3 7 4
-3 8 4
-3 9 4
-3 10 4
-3 11 4
-3 12 4
-3 13 4
-3 14 4
-4 0 4
-4 1 4
-4 2 4
-4 3 4
-4 4 4
-4 5 4
-4 6 4
-4 7 4
-4 8 4
-4 9 4
-4 10 4
-4 11 4
-4 12 4
-4 13 4
-4 14 4
-5 0 4
-5 1 4
-5 2 4
-5 3 4
-5 4 4
-5 5 4
-5 6 4
-5 7 4
-5 8 4
-5 9 4
-5 10 4
-5 11 4
-5 12 4
-5 13 4
-5 14 4
-6 0 4
-6 1 4
-6 2 4
-6 3 4
-6 4 4
-6 5 4
-6 6 4
-6 7 4
-6 8 4
-6 9 4
-6 10 4
-6 11 4
-6 12 4
-6 13 4
-6 14 4
-7 0 4
-7 1 4
-7 2 4
-7 3 4
-7 4 4
-7 5 4
-7 6 4
-7 7 4
-7 8 4
-7 9 4
-7 10 4
-7 11 4
-7 12 4
-7 13 4
-7 14 4
-8 0 4
-8 1 4
-8 2 4
-8 3 4
-8 4 4
-8 5 4
-8 6 4
-8 7 4
-8 8 4
-8 9 4
-8 10 4
-8 11 4
-8 12 4
-8 13 4
-8 14 4
-9 0 4
-9 1 4
-9 2 4
-9 3 4
-9 4 4
-9 5 4
-9 6 4
-9 7 4
-9 8 4
-9 9 4
-9 10 4
-9 11 4
-9 12 4
-9 13 4
-9 14 4
-10 0 4
-10 1 4
-10 2 4
-10 3 4
-10 4 4
-10 5 4
-10 6 4
-10 7 4
-10 8 4
-10 9 4
-10 10 4
-10 11 4
-10 12 4
-10 13 4
-10 14 4
-11 0 4
-11 1 4
-11 2 4
-11 3 4
-11 4 4
-11 5 4
-11 6 4
-11 7 4
-11 8 4
-11 9 4
-11 10 4
-11 11 4
-11 12 4
-11 13 4
-11 14 4
-12 0 4
-12 1 4
-12 2 4
-12 3 4
-12 4 4
-12 5 4
-12 6 4
-12 7 4
-12 8 4
-12 9 4
-12 10 4
-12 11 4
-12 12 4
-12 13 4
-12 14 4
-13 0 4
-13 1 4
-13 2 4
-13 3 4
-13 4 4
-13 5 4
-13 6 4
-13 7 4
-13 8 4
-13 9 4
-13 10 4
-13 11 4
-13 12 4
-13 13 4
-13 14 4
0 0 5
-1 0 5
-1 1 5
0 1 5
-1 2 5
0 2 5
-1 3 5
0 3 5
-1 4 5
0 4 5
-1 5 5
0 5 5
-1 6 5
0 6 5
-1 7 5
0 7 5
-1 8 5
0 8 5
-1 9 5
0 9 5
-1 10 5
0 10 5
-1 11 5
0 11 5
-1 12 5
0 12 5
-1 13 5
0 13 5
-1 14 5
0 14 5
-2 0 5
-2 1 5
-2 2 5
-2 3 5
-2 4 5
-2 5 5
-2 6 5
-2 7 5
-2 8 5
-2 9 5
-2 10 5
-2 11 5
-2 12 5
-2 13 5
-2 14 5
-3 0 5
-3 1 5
-3 2 5
-3 3 5
-3 4 5
-3 5 5
-3 6 5
-3 7 5
-3 8 5
-3 9 5
-3 10 5
-3 11 5
-3 12 5
-3 13 5
-3 14 5
-4 0 5
-4 1 5
-4 2 5
-4 3 5
-4 4 5
-4 5 5
-4 6 5
-4 7 5
-4 8 5
-4 9 5
-4 10 5
-4 11 5
-4 12 5
-4 13 5
-4 14 5
-5 0 5
-5 1 5
-5 2 5
-5 3 5
-5 4 5
-5 5 5
-5 6 5
-5 7 5
-5 8 5
-5 9 5
-5 10 5
-5 11 5
-5 12 5
-5 13 5
-5 14 5
-6 0 5
-6 1 5
-6 2 5
-6 3 5
-6 4 5
-6 5 5
-6 6 5
-6 7 5
-6 8 5
-6 9 5
-6 10 5
-6 11 5
-6 12 5
-6 13 5
-6 14 5
-7 0 5
-7 1 5
-7 2 5
-7 3 5
-7 4 5
-7 5 5
-7 6 5
-7 7 5
-7 8 5
-7 9 5
-7 10 5
-7 11 5
-7 12 5
-7 13 5
-7 14 5
-8 0 5
-8 1 5
-8 2 5
-8 3 5
-8 4 5
-8 5 5
-8 6 5
-8 7 5
-8 8 5
-8 9 5
-8 10 5
-8 11 5
-8 12 5
-8 13 5
-8 14 5
-9 0 5
-9 1 5
-9 2 5
-9 3 5
-9 4 5
-9 5 5
-9 6 5
-9 7 5
-9 8 5
-9 9 5
-9 10 5
-9 11 5
-9 12 5
-9 13 5
-9 14 5
-10 0 5
-10 1 5
-10 2 5
-10 3 5
-10 4 5
-10 5 5
-10 6 5
-10 7 5
-10 8 5
-10 9 5
-10 10 5
-10 11 5
-10 12 5
-10 13 5
-10 14 5
-11 0 5
-11 1 5
-11 2 5
-11 3 5
-11 4 5
-11 5 5
-11 6 5
-11 7 5
-11 8 5
-11 9 5
-11 10 5
-11 11 5
-11 12 5
-11 13 5
-11 14 5
-12 0 5
-12 1 5
-12 2 5
-12 3 5
-12 4 5
-12 5 5
-12 6 5
-12 7 5
-12 8 5
-12 9 5
-12 10 5
-12 11 5
-12 12 5
-12 13 5
-12 14 5
-13 0 5
-13 1 5
-13 2 5
-13 3 5
-13 4 5
-13 5 5
-13 6 5
-13 7 5
-13 8 5
-13 9 5
-13 10 5
-13 11 5
-13 12 5
-13 13 5
-13 14 5
0 0 6
-1 0 6
-1 1 6
0 1 6
-1 2 6
0 2 6
-1 3 6
0 3 6
-1 4 6
0 4 6
-1 5 6
0 5 6
-1 6 6
0 6 6
-1 7 6
0 7 6
-1 8 6
0 8 6
-1 9 6
0 9 6
-1 10 6
0 10 6
-1 11 6
0 11 6
-1 12 6
0 12 6
-1 13 6
0 13 6
-1 14 6
0 14 6
-2 0 6
-2 1 6
-2 2 6
-2 3 6
-2 4 6
-2 5 6
-2 6 6
-2 7 6
-2 8 6
-2 9 6
-2 10 6
-2 11 6
-2 12 6
-2 13 6
-2 14 6
-3 0 6
-3 1 6
-3 2 6
-3 3 6
-3 4 6
-3 5 6
-3 6 6
-3 7 6
-3 8 6
-3 9 6
-3 10 6
-3 11 6
[...]
CELL_DATA 13845
SCALARS scalars float
LOOKUP_TABLE default
1639.098131 -3782.692366 -3781.468255 -3780.493189 -3777.207898 -3774.960307 -3774.506815 -3773.497115 -3773.152139 -3770.369968 -3769.183153 -3767.625324 -3767.471884 -3766.132070 -3765.983748 -3765.065209 -3762.432471 -3761.595932 -3761.443509 -3760.756894 -3759.618732 -3758.505909 -3757.730104 -3757.465795 -3754.870583 -3753.645739 -3753.603654 -3753.281189 -3750.976559 -3750.925381 -3750.714533 -3750.385769 -3748.750579 -3746.628701 -3746.179165 -3746.007969 -3744.272440 -3743.922527 -3743.236296 -3741.732441 -3741.691539 -3739.414268 -3739.241870 -3738.034892 -3737.980127 -3737.765455 -3736.849434 -3735.748690 -3734.749367 -3733.135066 -3732.707644 -3731.695902 -3730.126820 -3729.935040 -3729.621101 -3729.241153 -3728.443011 -3727.577705 -3727.482655 -3725.295063 -3724.590217 -3723.997319 -3723.720009 -3722.506778 -3722.175266 -3720.541759 -3720.195586 -3719.454149 -3718.996892 -3718.869183 -3715.755329 -3715.746317 -3715.711897 -3715.617869 -3715.499314 -3714.428470 -3714.010567 -3711.391659 -3710.830581 -3710.806461 -3710.171532 -3709.046993 -3708.392868 -3707.279381 -3707.061126 -3706.467972 -3705.581186 -3705.558390 -3704.814983 -3704.538442 -3702.886618 -3701.251406 -3701.191877 -3701.134458 -3700.509249 -3698.910977 -3698.669115 -3698.458188 -3696.699004 -3696.476860 -3695.665057 -3695.123452 -3695.007511 -3694.335756 -3694.273732 -3693.879722 -3691.994967 -3691.211448 -3690.079816 -3689.465715 -3689.449861 -3688.319352 -3687.804295 -3687.414848 -3686.030817 -3685.853282 -3685.726536 -3684.110242 -3683.783310 -3682.635021 -3682.626866 -3681.540410 -3680.974060 -3680.538228 -3679.622571 -3679.317655 -3677.847468 -3677.596152 -3677.223354 -3675.944575 -3675.620864 -3673.764210 -3673.073432 -3672.994134 -3672.103956 -3671.932729 -3671.329160 -3670.311109 -3669.704874 -3666.440483 -3666.208518 -3665.817024 -3664.276881 -3663.833814 -3663.045032 -3662.945844 -3662.028413 -3660.379156 -3659.329130 -3657.360763 -3656.391161 -3655.111655 -3654.467840 -3654.293911 -3652.807837 -3652.653663 -3649.499552 -3649.072430 -3648.438366 -3646.250454 -3645.643605 -3642.932404 -3642.841694 -3642.198809 -3641.707131 -3637.987410 -3636.137010 -3636.043244 -3635.272781 -3634.233287 -3629.681349 -3629.524384 -3629.337090 -3625.880940 -3624.479116 -3622.300410 -3619.596068 -3619.543928 -3615.285418 -3615.027944 -3611.379818 -3608.458996 -3605.628326 -924.117132 -920.932317 -917.244082 -914.108714 -911.599718 -910.308047 -909.546635 -907.780086 -906.646735 -906.105207 -904.527578 -903.705722 -903.268811 -902.753611 -901.281270 -898.017048 -894.734619 -894.413268 -891.471856 -889.900531 -889.254008 -887.563028 -886.299674 -886.098871 -885.251556 -884.395839 -884.280430 -883.951342 -882.547378 -881.560890 -878.788013 -875.553466 -875.015855 -872.146880 -870.953959 -870.202870 -868.879668 -868.792267 -868.460818 -867.995447 -867.457162 -867.423614 -867.198162 -863.444729 -861.747267 -859.811244 -856.360267 -856.059537 -855.848238 -853.301607 -853.226202 -851.568597 -851.537988 -850.658058 -850.626803 -850.231250 -850.227503 -848.218597 -845.125965 -842.955028 -842.323581 -841.216756 -838.645891 -837.410898 -836.318956 -835.043850 -834.875153 -834.725327 -833.659060 -833.474324 -833.069811 -832.977095 -830.234833 -828.880789 -826.247203 -824.880586 -822.662045 -822.048291 -822.021886 -819.578379 -819.063278 -817.733311 -817.647294 -816.827936 -816.578498 -815.903183 -815.882189 -815.557209 -811.163076 -809.378426 -807.942899 -807.853281 -805.036569 -804.932884 -804.425445 -802.703939 -802.575721 -801.199459 -800.832982 -799.593820 -799.387220 -798.985028 -797.997102 -797.083409 -794.322864 -792.665726 -791.091021 -790.544918 -788.379500 -788.359355 -786.549664 -786.056184 -785.744757 -785.454568 -784.250584 -784.022622 -783.084015 -782.891701 -781.816428 -780.812540 -779.317502 -778.357542 -775.303821 -774.660567 -774.568947 -772.487805 -770.841677 -770.512530 -770.130034 -769.561690 -769.318302 -769.192078 -768.374900 -767.865094 -767.528377 -766.898173 -764.799138 -764.680352 -763.554377 -760.685094 -760.400114 -760.374449 -760.097868 -757.551375 -756.958381 -756.291674 -755.568486 -755.172636 -754.620963 -753.726197 -753.585696 -753.415109 -753.025577 -752.414732 -751.810528 -750.007829 -748.732540 -748.121718 -746.766952 -745.156003 -744.359568 -743.849414 -741.591122 -741.510644 -740.801389 -739.918821 -739.188715 -739.016056 -738.050254 -737.351550 -734.725815 -733.768174 -731.786830 -730.153982 -729.040878 -726.725404 -726.200851 -723.449387 -722.261376 -719.974363 -716.019311 -713.723488 -313.990522 -313.053154 -312.075608 -311.292922 -310.639731 -309.950550 -309.085484 -307.959036 -306.538669 -304.899964 -303.251882 -301.872546 -300.985977 -300.268824 -299.135162 -298.211618 -297.364514 -296.802519 -296.419711 -296.054329 -295.579920 -294.889775 -293.948137 -292.816354 -291.701097 -290.868348 -290.548406 -290.529544 -287.366113 -286.076669 -285.228303 -284.833662 -284.714942 -284.649171 -284.488963 -284.158297 -283.614699 -282.909733 -282.607879 -282.219843 -282.021339 -281.832905 -275.444962 -275.128225 -274.188363 -273.872506 -273.802987 -273.777584 -273.643216 -273.608379 -273.442972 -273.355109 -273.346220 -273.233008 -273.158787 -273.094465 -267.700164 -265.956962 -264.777810 -264.309042 -264.292601 -264.142081 -264.042262 -263.816500 -263.442384 -262.923815 -262.727784 -262.358983 -261.997073 -261.986178 -260.438491 -258.340160 -256.755313 -255.868295 -255.310963 -254.813644 -254.214536 -253.562647 -253.494278 -253.063624 -252.655546 -251.810786 -251.596169 -251.176554 -251.137373 -250.997846 -249.180988 -247.893526 -247.007873 -246.922619 -246.026060 -245.063964 -244.324514 -243.999849 -242.869119 -242.615412 -242.063696 -241.787962 -241.043942 -240.931778 -240.651345 -240.577387 -240.404746 -239.049467 -237.891398 -237.773743 -236.463665 -235.432194 -235.097944 -234.647581 -233.724660 -233.477138 -232.445548 -231.924833 -231.820102 -231.756511 -231.398546 -231.062797 -230.839906 -230.120306 -229.345399 -229.098261 -228.510561 -227.156328 -226.901012 -226.446047 -225.332126 -225.124437 -223.886023 -223.852490 -223.841031 -223.174805 -222.710432 -222.579159 -222.013935 -221.999483 -221.558379 -221.494882 -221.318884 -219.934144 -219.530770 -219.261360 -219.096261 -217.823076 -217.226297 -217.088020 -216.689503 -216.268260 -215.056273 -215.024938 -214.798832 -214.444357 -214.348066 -214.193701 -213.970755 -213.164000 -212.457292 -212.073810 -211.388045 -210.083827 -209.982175 -209.804560 -208.503255 -208.066449 -207.852613 -207.513193 -207.195037 -206.952838 -206.266668 -205.855501 -204.671992 -203.971738 -203.357264 -202.198903 -202.160619 -201.012430 -200.658766 -199.713029 -199.356944 -198.094139 -196.888317 -196.791070 -127.734310 -127.695493 -127.559480 -127.426571 -127.226064 -126.947287 -126.842963 -126.534281 -126.423201 -126.400520 -126.336084 -125.713737 -125.200942 -124.532111 -120.434264 -120.421949 -120.244240 -120.222605 -119.912017 -119.868227 -119.600471 -119.427754 -119.362115 -119.183733 -118.835792 -118.410546 -118.238492 -118.227308 -114.915230 -114.849835 -114.834889 -114.818258 -114.767859 -114.704440 -114.647200 -114.264904 -113.724490 -113.078889 -112.433067 -111.961028 -111.927463 -111.759146 -110.963316 -110.484822 -110.080014 -109.896912 -109.749909 -109.522736 -109.147091 -108.595182 -107.899267 -107.119356 -107.103371 -106.359729 -106.351319 -105.772929 -105.746549 -105.684434 -105.559122 -105.265440 -104.906735 -104.474382 -103.910048 -103.379752 -103.205099 -102.430915 -102.363726 -101.542114 -101.450711 -100.903011 -100.592214 -100.331892 -100.115114 -99.940453 -99.906418 -99.736330 -99.703390 -98.962528 -98.767309 -98.101313 -97.666529 -97.128927 -96.810677 -96.629610 -96.113451 -96.023128 -95.336780 -95.208396 -95.170417 -94.568929 -94.460859 -94.310739 -94.220534 -94.059251 -93.483304 -93.298816 -93.006830 -92.218035 -92.129192 -92.019079 -91.130514 -91.021899 -90.728783 -90.558364 -90.125235 -89.968822 -89.582584 -89.513036 -89.382013 -89.185393 -89.139269 -88.841194 -88.346958 -87.877024 -87.703975 -87.681767 -87.176854 -86.548044 -86.501672 -86.355095 -85.991523 -85.519109 -85.343205 -85.039603 -85.004291 -84.787268 -84.749248 -84.526471 -84.447292 -84.132991 -83.732470 -83.579790 -83.578747 -83.479862 -82.714546 -82.454031 -82.428686 -82.165847 -81.987497 -81.406437 -81.275360 -81.198497 -80.770170 -80.638692 -80.573364 -80.328692 -80.304116 -79.972342 -79.830953 -79.440107 -79.179340 -78.830550 -78.405266 -78.169393 -77.847744 -77.746356 -77.101280 -77.082067 -76.961555 -76.747079 -76.725155 -76.374612 -75.864814 -75.853651 -75.149409 -74.931532 -74.688752 -74.175555 -73.981444 -73.696049 -73.658065 -73.652574 -72.875242 -72.775668 -71.968422 -71.926198 -71.224589 -71.107735 -70.427797 -70.321032 -69.597433 -69.542161 -57.682508 -57.662970 -57.561362 -57.511904 -57.314132 -57.263969 -56.981361 -56.975298 -56.732721 -56.608429 -56.292318 -56.228156 -56.107447 -55.883790 -53.963235 -53.962287 -53.874066 -53.851530 -53.757753 -53.696362 -53.614312 -53.425757 -53.265011 -52.839347 -52.401799 -52.029535 -51.819052 -51.611930 -51.271697 -51.191337 -51.180373 -51.164519 -51.133995 -51.025895 -50.812137 -50.479025 -50.049764 -49.558228 -49.121000 -49.061531 -48.995226 -48.750767 -48.647024 -48.605900 -48.458744 -48.444484 -48.364807 -48.246803 -47.936267 -47.517432 -47.100380 -47.012916 -46.828965 -46.459013 -46.447928 -46.179075 -45.922155 -45.910214 -45.608982 -45.458628 -45.238636 -45.208072 -45.161565 -45.158438 -44.781594 -44.717511 -44.283082 -44.145372 -43.899122 -43.535236 -43.531393 -43.350912 -43.126238 -42.940676 -42.869757 -42.641516 -42.467564 -42.286368 -42.258986 -42.258564 -42.079448 -41.766231 -41.645341 -41.448473 -41.296590 -41.084771 -40.794924 -40.790471 -40.382032 -40.235525 -40.168198 -40.008941 -39.790443 -39.675729 -39.607824 -39.478332 -39.454555 -39.415424 -39.220941 -38.932041 -38.655630 -38.629677 -38.488304 -38.246253 -37.998925 -37.981385 -37.880104 -37.605299 -37.323172 -37.321805 -37.106874 -37.088916 -37.080851 -36.984417 -36.898480 -36.651822 -36.617009 -36.475488 -36.352759 -35.958976 -35.916520 -35.739679 -35.693829 -35.623914 -35.277227 -35.249139 -35.227602 -34.929464 -34.888711 -34.781354 -34.676062 -34.557070 -34.529829 -34.516901 -34.480173 -34.155608 -34.153743 -34.016755 -33.834916 -33.758516 -33.425753 -33.381094 -33.310279 -33.212550 -32.975138 -32.730471 -32.707515 -32.629321 -32.577127 -32.502933 -32.407842 -32.192051 -32.033625 -31.903080 -31.803219 -31.455323 -31.440167 -31.203792 -31.057383 -30.977864 -30.763552 -30.735454 -30.635164 -30.562435 -30.383953 -30.097311 -30.005727 -29.731479 -29.546166 -29.497233 -29.246312 -29.116920 -29.107375 -28.983216 -28.567756 -28.496211 -28.095284 -28.031800 -27.810685 -27.792116 -27.755705 -27.696180 -27.647095 -27.627191 -27.533462 -27.517932 -27.498654 -27.400538 -27.322643 -27.157095 -27.096595 -27.061174 -26.995915 -26.898517 -26.774898 -26.498778 -25.950855 -25.930663 -25.924042 -25.880308 -25.861325 -25.844524 -25.688918 -25.579081 -25.474454 -25.220236 -24.959388 -24.735305 -24.626300 -24.603507 -24.565397 -24.541747 -24.508379 -24.446619 -24.431419 -24.341942 -24.293661 -24.092664 -23.838354 -23.549883 -23.461523 -23.389264 -23.322465 -23.259043 -23.233128 -23.141500 -23.013737 -23.012109 -22.888556 -22.826046 -22.698617 -22.582487 -22.352481 -22.350295 -22.291381 -22.143083 -21.992918 -21.972360 -21.845075 -21.665338 -21.655599 -21.436263 -21.392527 -21.358195 -21.299856 -21.260005 -21.154936 -21.076664 -21.032255 -20.830043 -20.825328 -20.624399 -20.483634 -20.429759 -20.396428 -20.315167 -20.147376 -20.126974 -19.992057 -19.874893 -19.812413 -19.749559 -19.732464 -19.622820 -19.549964 -19.480596 -19.459762 -19.395166 -19.207023 -19.091303 -19.027379 -18.900131 -18.741170 -18.719946 -18.703727 -18.555967 -18.531873 -18.460481 -18.421048 -18.329871 -18.206365 -18.182643 -18.138875 -18.105292 -17.912939 -17.801082 -17.793026 -17.763713 -17.730326 -17.452387 -17.444229 -17.394900 -17.331736 -17.161816 -17.161045 -17.098812 -17.040637 -17.008742 -16.984755 -16.961008 -16.954441 -16.728497 -16.621452 -16.610502 -16.587191 -16.427129 -16.343583 -16.309835 -16.264974 -16.236002 -16.203669 -16.004984 -15.985683 -15.950569 -15.859775 -15.843423 -15.814008 -15.756533 -15.704548 -15.643217 -15.568408 -15.567085 -15.441684 -15.420806 -15.265781 -15.248092 -15.220936 -15.045484 -15.030370 -14.950177 -14.912177 -14.843873 -14.823666 -14.663163 -14.660403 -14.656082 -14.518192 -14.458023 -14.328971 -14.277482 -14.228966 -14.213944 -14.206759 -14.159478 -14.157470 -14.137797 -14.098977 -14.089112 -14.070184 -14.065081 -14.049155 -13.956776 -13.924503 -13.923945 -13.836101 -13.786428 -13.756535 -13.729418 -13.728928 -13.699413 -13.661278 -13.608124 -13.438319 -13.398705 -13.374048 -13.338847 -13.306001 -13.297331 -13.290659 -13.283514 -13.281717 -13.241168 -13.156198 -13.156149 -13.105484 -13.105337 -13.040713 -12.994485 -12.970704 -12.905379 -12.812515 -12.810906 -12.766595 -12.662450 -12.647097 -12.620225 -12.602254 -12.580886 -12.580795 -12.544487 -12.537188 -12.510942 -12.461722 -12.428998 -12.354070 -12.305111 -12.266433 -12.218498 -12.101912 -12.072507 -12.064933 -11.991165 -11.969131 -11.940927 -11.910999 -11.895258 -11.891123 -11.821516 -11.782268 -11.771397 -11.722388 -11.720926 -11.593641 -11.507237 -11.484176 -11.439143 -11.392491 -11.366891 -11.312466 -11.269801 -11.234911 -11.141094 -11.102998 -11.021016 -10.969956 -10.965306 -10.899712 -10.872904 -10.859375 -10.825922 -10.718780 -10.701717 -10.669407 -10.615874 -10.518573 -10.499087 -10.462694 -10.382206 -10.359231 -10.340895 -10.293338 -10.197648 -10.194189 -10.161491 -10.135929 -10.035129 -10.008898 -9.984091 -9.936649 -9.923331 -9.897051 -9.814177 -9.795983 -9.738677 -9.643831 -9.628854 -9.558712 -9.530080 -9.496294 -9.481339 -9.477813 -9.416726 -9.362384 -9.337824 -9.335013 -9.221120 -9.168465 -9.162584 -9.160436 -9.101381 -9.057185 -9.002840 -8.970911 -8.970402 -8.913960 -8.826511 -8.821257 -8.766771 -8.760796 -8.741614 -8.686852 -8.637416 -8.634965 -8.586368 -8.562239 -8.561067 -8.533153 -8.436963 -8.372835 -8.370112 -8.369470 -8.298329 -8.229309 -8.219990 -8.213096 -8.205442 -8.184074 -8.174835 -8.154947 -8.065652 -8.023804 -7.987160 -7.969997 -7.952387 -7.880882 -7.835566 -7.790551 -7.787523 -7.786528 -7.779497 -7.777961 -7.762804 -7.756542 -7.752600 -7.733421 -7.730199 -7.718577 -7.708747 -7.704272 -7.686246 -7.683991 -7.653233 -7.618553 -7.594729 -7.583600 -7.561363 -7.555371 -7.543075 -7.511810 -7.489357 -7.416062 -7.398883 -7.381591 -7.376998 -7.366032 -7.340052 -7.330880 -7.328956 -7.326906 -7.321937 -7.296738 -7.296652 -7.254129 -7.224732 -7.224605 -7.196478 -7.186556 -7.182370 -7.141413 -7.129306 -7.104577 -7.061080 -7.048932 -7.027776 -7.005995 -7.005445 -7.003786 -6.994501 -6.980158 -6.978168 -6.967268 -6.944632 -6.932680 -6.920881 -6.906697 -6.852511 -6.839561 -6.822503 -6.784146 -6.768179 -6.747346 -6.727828 -6.718703 -6.707220 -6.699889 -6.675564 -6.645917 -6.645789 -6.631116 -6.619478 -6.584281 -6.569459 -6.556088 -6.547041 -6.534772 -6.498585 -6.497166 -6.483566 -6.469918 -6.437935 -6.391583 -6.369866 -6.337485 -6.326398 -6.326362 -6.305912 -6.291164 -6.287254 -6.240560 -6.226310 -6.222855 -6.180575 -6.159584 -6.156527 -6.146973 -6.131611 -6.105870 -6.078438 -6.022857 -6.018757 -5.981258 -5.972340 -5.964001 -5.937601 -5.925524 -5.915213 -5.893160 -5.881489 -5.845510 -5.836201 -5.801787 -5.766133 -5.761885 -5.742951 -5.736256 -5.714573 -5.678469 -5.675839 -5.667125 -5.637252 -5.609038 -5.567315 -5.540480 -5.530365 -5.510321 -5.472756 -5.468222 -5.467842 -5.438972 -5.399298 -5.399251 -5.389278 -5.373531 -5.337678 -5.323407 -5.295062 -5.236728 -5.232649 -5.223901 -5.220472 -5.147998 -5.145115 -5.144337 -5.139002 -5.134050 -5.067986 -5.061763 -5.057765 -5.033256 -5.032780 -4.997455 -4.988893 -4.968413 -4.924055 -4.918633 -4.899461 -4.865866 -4.858010 -4.830086 -4.822505 -4.816196 -4.802177 -4.756516 -4.743130 -4.732467 -4.731802 -4.723956 -4.713072 -4.680629 -4.654294 -4.645569 -4.642906 -4.641109 -4.637820 -4.637273 -4.633329 -4.629815 -4.628317 -4.627144 -4.626274 -4.624844 -4.607293 -4.583296 -4.566507 -4.558680 -4.541995 -4.537853 -4.534749 -4.527618 -4.516350 -4.485140 -4.477098 -4.458694 -4.454521 -4.440925 -4.429653 -4.423868 -4.421402 -4.416199 -4.414642 -4.409640 -4.404455 -4.397655 -4.381990 -4.377899 -4.351355 -4.325017 -4.320617 -4.320235 -4.298601 -4.290425 -4.286468 -4.282390 -4.281429 -4.267308 -4.264509 -4.262778 -4.252650 -4.243056 -4.242197 -4.239736 -4.231345 -4.219858 -4.209000 -4.206574 -4.201631 -4.197049 -4.177057 -4.175726 -4.157528 -4.154701 -4.149874 -4.143188 -4.127254 -4.107062 -4.099322 -4.088686 -4.077171 -4.075363 -4.072522 -4.070366 -4.068926 -4.054462 -4.047154 -4.046830 -4.037094 -4.013272 -4.010653 -3.990163 -3.988865 -3.987033 -3.981856 -3.974818 -3.960263 -3.943805 -3.929447 -3.923057 -3.903987 -3.902587 -3.900516 -3.891956 -3.884339 -3.872809 -3.863792 -3.861898 -3.835675 -3.833844 -3.832966 -3.826092 -3.822084 -3.796493 -3.796405 -3.783660 -3.775741 -3.753335 -3.745879 -3.728215 -3.721853 -3.707363 -3.703634 -3.694998 -3.680350 -3.664462 -3.661432 -3.659459 -3.645323 -3.633701 -3.632542 -3.627360 -3.620111 -3.603811 -3.594978 -3.588783 -3.576061 -3.572507 -3.567705 -3.536977 -3.536368 -3.522097 -3.499195 -3.484630 -3.475177 -3.474695 -3.453664 -3.453497 -3.452219 -3.441349 -3.437612 -3.422948 -3.401858 -3.391889 -3.389065 -3.385356 -3.347677 -3.347561 -3.347290 -3.318978 -3.313617 -3.313092 -3.309686 -3.298347 -3.296506 -3.289305 -3.259435 -3.255254 -3.253063 -3.244638 -3.242805 -3.218145 -3.208566 -3.198462 -3.193717 -3.184504 -3.170432 -3.170289 -3.156353 -3.133020 -3.129794 -3.097778 -3.094291 -3.092532 -3.088164 -3.086637 -3.085546 -3.079708 -3.077928 -3.072203 -3.068616 -3.068386 -3.067798 -3.067718 -3.067568 -3.064274 -3.058305 -3.050924 -3.044389 -3.041781 -3.040194 -3.035971 -3.032379 -3.031545 -3.028483 -3.019529 -3.018788 -3.006374 -2.992207 -2.989018 -2.985097 -2.984677 -2.976730 -2.971552 -2.968797 -2.959469 -2.955792 -2.952594 -2.949578 -2.947397 -2.939371 -2.930358 -2.928928 -2.928492 -2.917317 -2.912038 -2.912036 -2.909893 -2.907197 -2.906777 -2.906422 -2.905393 -2.902202 -2.881216 -2.868832 -2.868521 -2.862096 -2.855999 -2.854575 -2.852281 -2.847684 -2.841432 -2.837735 -2.836332 -2.826864 -2.822373 -2.807405 -2.801052 -2.800442 -2.794507 -2.794467 -2.792931 -2.791209 -2.788390 -2.781586 -2.779151 -2.770482 -2.761989 -2.759743 -2.751002 -2.747223 -2.743158 -2.736607 -2.728557 -2.726274 -2.719341 -2.708529 -2.701915 -2.701129 -2.691551 -2.688444 -2.685380 -2.681316 -2.677454 -2.672829 -2.670986 -2.661019 -2.659357 -2.657648 -2.653761 -2.652745 -2.649403 -2.647733 -2.640466 -2.636146 -2.632840 -2.628988 -2.623701 -2.620043 -2.606231 -2.598488 -2.598318 -2.595170 -2.583481 -2.580832 -2.579689 -2.577172 -2.574372 -2.573939 -2.569645 -2.568087 -2.560677 -2.559607 -2.548291 -2.539815 -2.539008 -2.534931 -2.524821 -2.523457 -2.512546 -2.504997 -2.504319 -2.499965 -2.499833 -2.486689 -2.482792 -2.479973 -2.477674 -2.473421 -2.464846 -2.460509 -2.456799 -2.451251 -2.443838 -2.434193 -2.433979 -2.428111 -2.421289 -2.405470 -2.402641 -2.402115 -2.394570 -2.394365 -2.384325 -2.379540 -2.378049 -2.374606 -2.370318 -2.368448 -2.363109 -2.361422 -2.348753 -2.348449 -2.328990 -2.327787 -2.327029 -2.326473 -2.324710 -2.324105 -2.316169 -2.302363 -2.300004 -2.299462 -2.297195 -2.294736 -2.294554 -2.285755 -2.285439 -2.285040 -2.280751 -2.276883 -2.272206 -2.270943 -2.269800 -2.269255 -2.268031 -2.267331 -2.267179 -2.266758 -2.266412 -2.265056 -2.264936 -2.264079 -2.252590 -2.242484 -2.239611 -2.237043 -2.236832 -2.233351 -2.232581 -2.226787 -2.223571 -2.221806 -2.221380 -2.215013 -2.214403 -2.212533 -2.210043 -2.208198 -2.207599 -2.205716 -2.204583 -2.203611 -2.201593 -2.201363 -2.199963 -2.199609 -2.197244 -2.196643 -2.190818 -2.